[ atomtypes ]
;name   bond_type     mass     charge   ptype   sigma         epsilon       Amb
Br          35      79.90    0.0000  A   3.95559e-01  1.33888e+00

[ moleculetype ]
; molname       nrexcl
BR              1

[ atoms ]
; id    at type         res nr  residu name     at name  cg nr  charge
1       Br              1       BR              BR       1      -1.00000