[ atomtypes ]
;name   bond_type     mass     charge   ptype   sigma         epsilon       Amb
Na           7      14.01    0.0000  A   3.32840e-01  1.15897e-02

[ moleculetype ]
; molname       nrexcl
NA              1

[ atoms ]
; id    at type         res nr  residu name     at name  cg nr  charge
1       Na              1       NA              NA       1      1.00000